Program Version,EnergyPlus, Version 9.6.0-f420c06a69, YMD=2023.10.12 16:07
1,5,Environment Title[],Latitude[deg],Longitude[deg],Time Zone[],Elevation[m]
2,8,Day of Simulation[],Month[],Day of Month[],DST Indicator[1=yes 0=no],Hour[],StartMinute[],EndMinute[],DayType
3,5,Cumulative Day of Simulation[],Month[],Day of Month[],DST Indicator[1=yes 0=no],DayType  ! When Daily Meters Requested
4,2,Cumulative Days of Simulation[],Month[]  ! When Monthly Meters Requested
5,1,Cumulative Days of Simulation[] ! When Run Period Meters Requested
6,1,Calendar Year of Simulation[] ! When Annual Meters Requested
198,9,Electricity:Facility [J] !Monthly [Value,Min,Day,Hour,Minute,Max,Day,Hour,Minute]
210,9,Electricity:HVAC [J] !Monthly [Value,Min,Day,Hour,Minute,Max,Day,Hour,Minute]
200,11,Electricity:Facility [J] !RunPeriod [Value,Min,Month,Day,Hour,Minute,Max,Month,Day,Hour,Minute]
212,11,Electricity:HVAC [J] !RunPeriod [Value,Min,Month,Day,Hour,Minute,Max,Month,Day,Hour,Minute]
End of Data Dictionary
1,RUN PERIOD 1,  35.17, 126.89,   9.00,  74.00
4,31, 1
198,7589075845.935639,0.0,31,13,30,3310576.6593495305,24, 7,20
210,7589075845.935639,0.0,31,13,30,3310576.6593495305,24, 7,20
4,59, 2
198,5332029765.042875,99999999999999.0,31,13,30,-99999999999999.0,24, 7,20
210,5332029765.042875,99999999999999.0,31,13,30,-99999999999999.0,24, 7,20
4,90, 3
198,3490720665.1789594,99999999999999.0,31,13,30,-99999999999999.0,24, 7,20
210,3490720665.1789594,99999999999999.0,31,13,30,-99999999999999.0,24, 7,20
4,120, 4
198,1728988121.7296221,99999999999999.0,31,13,30,-99999999999999.0,24, 7,20
210,1728988121.7296221,99999999999999.0,31,13,30,-99999999999999.0,24, 7,20
4,151, 5
198,213190520.19767964,99999999999999.0,31,13,30,-99999999999999.0,24, 7,20
210,213190520.19767964,99999999999999.0,31,13,30,-99999999999999.0,24, 7,20
4,181, 6
198,789566188.775508,99999999999999.0,31,13,30,-99999999999999.0,24, 7,20
210,789566188.775508,99999999999999.0,31,13,30,-99999999999999.0,24, 7,20
4,212, 7
198,2244845892.857111,99999999999999.0,31,13,30,-99999999999999.0,24, 7,20
210,2244845892.857111,99999999999999.0,31,13,30,-99999999999999.0,24, 7,20
4,243, 8
198,2980877403.0613527,99999999999999.0,31,13,30,-99999999999999.0,24, 7,20
210,2980877403.0613527,99999999999999.0,31,13,30,-99999999999999.0,24, 7,20
4,273, 9
198,385537621.399627,99999999999999.0,31,13,30,-99999999999999.0,24, 7,20
210,385537621.399627,99999999999999.0,31,13,30,-99999999999999.0,24, 7,20
4,304,10
198,787613178.5465639,99999999999999.0,31,13,30,-99999999999999.0,24, 7,20
210,787613178.5465639,99999999999999.0,31,13,30,-99999999999999.0,24, 7,20
4,334,11
198,3524309827.2150993,99999999999999.0,31,13,30,-99999999999999.0,24, 7,20
210,3524309827.2150993,99999999999999.0,31,13,30,-99999999999999.0,24, 7,20
4,365,12
198,6963181539.115135,99999999999999.0,31,13,30,-99999999999999.0,24, 7,20
210,6963181539.115135,99999999999999.0,31,13,30,-99999999999999.0,24, 7,20
5,365
200,36029936569.06591,0.0, 1,31,13,30,3310576.6593495305, 1,24, 7,20
212,36029936569.06591,0.0, 1,31,13,30,3310576.6593495305, 1,24, 7,20
End of Data
 Number of Records Written=          26
